110
# CELL(abcABC):   25.26300    25.26300    25.26300    90.00000    90.00000    90.00000  Step:         300  Bead:       0 x_centroid{angstrom}  cell{atomic_unit}
       C  5.62241e+00  6.74436e+00  2.92912e+00
       O  5.28194e+00  5.63235e+00  2.95294e+00
       O  5.97838e+00  7.85233e+00  2.90695e+00
       C  9.22404e+00  1.24956e+01  1.40906e+01
       O  9.60684e+00  1.18492e+01  1.32027e+01
       O  8.85428e+00  1.31402e+01  1.49844e+01
       C  3.42012e-01  4.85505e+00  7.11104e+00
       O -7.41949e-01  4.55048e+00  7.40184e+00
       O  1.42637e+00  5.15814e+00  6.81857e+00
       C  1.57131e+00  2.33259e+00  1.00515e+01
       O  1.37297e+00  2.61094e+00  8.94006e+00
       O  1.76909e+00  2.05491e+00  1.11631e+01
       C  4.63154e+00  1.09360e+01  9.00284e+00
       O  5.74570e+00  1.07387e+01  9.27333e+00
       O  3.51930e+00  1.11328e+01  8.72604e+00
       C  1.02176e+01  1.20298e+01  1.01555e+01
       O  9.32564e+00  1.26975e+01  9.82372e+00
       O  1.11164e+01  1.13698e+01  1.04851e+01
       C  5.38573e+00  1.30458e+01  5.56770e+00
       O  5.67699e+00  1.21786e+01  6.28550e+00
       O  5.09329e+00  1.39148e+01  4.85201e+00
       C  8.39364e+00  8.33483e+00  1.13524e+00
       O  8.95367e+00  8.93204e+00  1.96125e+00
       O  7.83524e+00  7.74382e+00  3.04155e-01
       C  9.52496e+00  8.44877e+00  1.08277e+01
       O  1.02363e+01  7.56091e+00  1.05875e+01
       O  8.80619e+00  9.33104e+00  1.10674e+01
       C  1.80243e+00  6.54685e+00  3.85108e+00
       O  2.74303e+00  7.22946e+00  3.88833e+00
       O  8.58617e-01  5.86835e+00  3.81213e+00
       C  7.33270e+00  1.03445e+01  4.20387e+00
       O  6.83037e+00  1.10704e+01  3.44693e+00
       O  7.82624e+00  9.61180e+00  4.95968e+00
       C  4.79752e+00  3.58187e+00 -1.75505e-01
       O  4.50783e+00  2.45759e+00 -1.13089e-01
       O  5.08398e+00  4.70693e+00 -2.40870e-01
       C  3.33444e+00  1.30719e+01  1.23813e+01
       O  2.63166e+00  1.31711e+01  1.33026e+01
       O  4.03117e+00  1.29640e+01  1.14562e+01
       C  5.53477e+00  3.99760e+00  9.07218e+00
       O  4.56621e+00  3.51142e+00  9.49382e+00
       O  6.50243e+00  4.49039e+00  8.65577e+00
       C  1.15995e+01  9.74002e+00  6.54588e-01
       O  1.18055e+01  1.05833e+01  1.42766e+00
       O  1.13781e+01  8.89772e+00 -1.16297e-01
       C  8.49431e+00  6.78586e+00  5.46285e+00
       O  9.62285e+00  7.06628e+00  5.45699e+00
       O  7.36364e+00  6.51299e+00  5.46605e+00
       C  3.11923e+00  7.76113e+00  1.31064e+01
       O  3.74717e+00  7.50886e+00  1.40518e+01
       O  2.49341e+00  8.00851e+00  1.21583e+01
       C  1.01567e+01  1.23927e+01  6.28129e+00
       O  1.10370e+01  1.24088e+01  7.04108e+00
       O  9.27557e+00  1.23893e+01  5.52231e+00
       C  3.85524e+00  1.06567e+01  2.91341e+00
       O  3.98352e+00  1.04473e+01  1.77714e+00
       O  3.72835e+00  1.08732e+01  4.04888e+00
       C  1.41736e+00  3.24635e+00  1.53110e+00
       O  1.90861e+00  4.23531e+00  1.16507e+00
       O  9.21352e-01  2.26032e+00  1.89672e+00
       C  8.04459e+00  2.19615e+00  1.18581e+01
       O  7.18137e+00  2.84192e+00  1.14213e+01
       O  8.90917e+00  1.54887e+00  1.22887e+01
       C  6.02981e-01  1.17672e+01  4.55084e+00
       O  5.33208e-01  1.08093e+01  3.89519e+00
       O  6.76559e-01  1.27224e+01  5.20920e+00
       C  5.91049e+00  1.03105e+01  1.28465e+01
       O  5.02648e+00  9.94170e+00  1.21884e+01
       O  6.79309e+00  1.06747e+01  1.35098e+01
       C  4.08684e-01  1.15131e+01  8.48068e+00
       O  2.72792e-01  1.06786e+01  7.68162e+00
       O  5.40342e-01  1.23546e+01  9.27304e+00
       C  7.50482e+00  2.66812e+00  5.45406e+00
       O  7.54922e+00  3.38096e+00  4.53668e+00
       O  7.46563e+00  1.94690e+00  6.36559e+00
       C  1.31658e+01  7.71095e+00  1.08664e+01
       O  1.31988e+01  6.73476e+00  1.14981e+01
       O  1.31242e+01  8.67943e+00  1.02245e+01
       C  9.55741e+00  4.37397e+00  8.32511e+00
       O  9.25890e+00  4.51408e+00  7.20968e+00
       O  9.85074e+00  4.22401e+00  9.44077e+00
       C  8.04664e+00  4.48814e+00  1.77416e+00
       O  8.38884e+00  5.46790e+00  2.30036e+00
       O  7.69326e+00  3.51486e+00  1.24438e+00
       C -3.71533e-01  1.24683e+01  1.26912e+01
       O -9.69283e-01  1.34461e+01  1.28875e+01
       O  2.17259e-01  1.14844e+01  1.24970e+01
       C  1.13264e+01  8.57160e+00  7.70385e+00
       O  1.05768e+01  9.39278e+00  8.04532e+00
       O  1.20715e+01  7.74533e+00  7.36503e+00
       C  1.09718e+01  4.06358e+00  1.23429e+01
       O  1.19736e+01  3.55783e+00  1.20376e+01
       O  9.96422e+00  4.56248e+00  1.26417e+01
       C  1.30609e+01  6.54766e+00  1.11249e+00
       O  1.23017e+01  5.66806e+00  1.13027e+00
       O  1.38245e+01  7.42468e+00  1.09838e+00
       C  1.14211e+01  8.98340e+00  4.10911e+00
       O  1.17192e+01  8.19783e+00  3.30442e+00
       O  1.11274e+01  9.77183e+00  4.91256e+00
       C  1.13882e+01  1.36589e+00  2.26173e+00
       O  1.17459e+01  3.94884e-01  2.79337e+00
       O  1.10184e+01  2.33620e+00  1.73811e+00
       C  6.81883e+00  7.53963e+00  8.67533e+00
       O  7.95479e+00  7.48551e+00  8.43115e+00
       O  5.68440e+00  7.58612e+00  8.92409e+00
       C  3.85432e+00  3.64219e+00  5.14819e+00
       O  4.60094e+00  3.57051e+00  6.03719e+00
       O  3.10506e+00  3.71554e+00  4.26206e+00
       L  0.00000e+00  0.00000e+00  0.00000e+00
       L  0.00000e+00  0.00000e+00  0.00000e+00
