3924
# CELL(abcABC):   25.26300    25.26300    25.26300    90.00000    90.00000    90.00000  Step:           0  Bead:       0 x_centroid{angstrom}  cell{atomic_unit}
       C  5.25367e+00  1.34246e+01  4.20816e+00
       O  5.80796e+00  1.26932e+01  3.50546e+00
       O  4.59249e+00  1.40619e+01  4.92573e+00
       C  7.96226e+00  1.50284e+01  1.48038e+01
       O  8.67380e+00  1.51921e+01  1.39047e+01
       O  7.28166e+00  1.48137e+01  1.57643e+01
       C -8.50581e-01  7.43311e+00  4.81450e+00
       O -5.11727e-01  6.32570e+00  5.01481e+00
       O -1.22819e+00  8.49021e+00  4.52128e+00
       C -1.11731e-01  3.80146e+00  8.12162e+00
       O  6.76978e-01  4.12385e+00  8.92488e+00
       O -8.46287e-01  3.36546e+00  7.34016e+00
       C  2.75830e+00  1.96997e+01  6.11357e+00
       O  3.18984e+00  2.03952e+01  6.91427e+00
       O  2.38300e+00  1.89120e+01  5.32404e+00
       C  1.13252e+01  1.14496e+01  1.34457e+01
       O  1.05024e+01  1.19668e+01  1.27606e+01
       O  1.22558e+01  1.10830e+01  1.40123e+01
       C  2.59785e+00  1.41770e+01  7.02589e+00
       O  2.75980e+00  1.30071e+01  6.98633e+00
       O  2.41167e+00  1.53547e+01  7.18125e+00
       C  8.81054e+00  1.02192e+01  2.69491e+00
       O  8.35460e+00  1.02225e+01  1.59879e+00
       O  9.24747e+00  1.01564e+01  3.78600e+00
       C  1.07616e+01  8.52200e+00  8.67092e+00
       O  9.93155e+00  8.13248e+00  9.41630e+00
       O  1.16357e+01  8.84797e+00  7.90312e+00
       C  9.36908e-01  5.48525e+00 -1.54803e+00
       O  2.04128e+00  5.20801e+00 -1.25007e+00
       O -1.82726e-01  5.78756e+00 -1.78604e+00
       C  8.59614e+00  1.38404e+01  4.97462e+00
       O  7.97462e+00  1.40943e+01  5.94805e+00
       O  9.11168e+00  1.34167e+01  4.02375e+00
       C  5.43600e+00  2.28125e+00 -1.69576e+00
       O  4.40730e+00  2.42857e+00 -2.10713e+00
       O  6.53649e+00  2.03392e+00 -1.40110e+00
       C  4.90140e+00  1.22969e+01  8.77627e+00
       O  4.94553e+00  1.11487e+01  8.64986e+00
       O  4.84143e+00  1.34603e+01  8.79898e+00
       C  2.29656e+00  9.77296e+00  4.39327e+00
       O  2.61083e+00  1.08488e+01  4.63889e+00
       O  1.96190e+00  8.68274e+00  4.21538e+00
       C  1.37542e+01  8.67144e+00  1.42907e+00
       O  1.45648e+01  9.47402e+00  1.61084e+00
       O  1.29386e+01  7.84098e+00  1.23674e+00
       C  4.83419e+00  7.53692e+00  2.75765e+00
       O  4.13220e+00  7.92584e+00  1.91214e+00
       O  5.64785e+00  7.22625e+00  3.57513e+00
       C  5.92560e+00  8.03755e+00  1.07866e+01
       O  5.49745e+00  7.54160e+00  9.83629e+00
       O  6.29620e+00  8.62356e+00  1.17160e+01
       C  7.25439e+00  7.36068e+00  7.38818e+00
       O  7.20649e+00  8.46226e+00  7.75015e+00
       O  7.33575e+00  6.26242e+00  7.03109e+00
       C  7.92765e+00  4.47027e+00 -1.12959e+00
       O  8.48108e+00  4.45892e+00 -2.14903e+00
       O  7.47770e+00  4.43772e+00 -7.27186e-02
       C  1.57184e+00 -7.56170e-01  3.43843e-01
       O  1.30634e+00 -1.33908e+00 -6.51691e-01
       O  1.87126e+00 -2.20154e-01  1.31813e+00
       C  6.61645e+00  3.53507e+00  8.49280e+00
       O  7.37147e+00  3.04613e+00  7.75393e+00
       O  5.97514e+00  4.05641e+00  9.34431e+00
       C -7.32734e-02  1.57091e+01  3.93090e+00
       O -1.08865e+00  1.61657e+01  3.80213e+00
       O  9.98522e-01  1.52582e+01  4.21882e+00
       C  4.87593e+00  1.19008e+01  1.32048e+01
       O  4.81098e+00  1.24713e+01  1.21638e+01
       O  4.95884e+00  1.12065e+01  1.41746e+01
       C -8.52920e-01  1.35466e+01  8.98791e+00
       O -1.88248e+00  1.30624e+01  8.58284e+00
       O  1.69522e-01  1.40345e+01  9.23827e+00
       C  9.64528e+00  4.52351e+00  6.27690e+00
       O  9.15763e+00  3.53845e+00  5.95285e+00
       O  1.02264e+01  5.51550e+00  6.56212e+00
       C  1.60938e+01  8.97986e+00  1.17032e+01
       O  1.55947e+01  8.03174e+00  1.12765e+01
       O  1.66267e+01  9.98808e+00  1.20195e+01
       C  9.44471e+00 -1.99380e+00  8.22344e+00
       O  9.56309e+00 -2.26092e+00  9.35088e+00
       O  9.36614e+00 -1.67731e+00  7.10876e+00
       C  8.75861e+00  6.02919e+00  2.21234e+00
       O  9.28390e+00  4.99645e+00  1.90460e+00
       O  8.37420e+00  7.11831e+00  2.50355e+00
       C  2.42087e+00  1.68949e+01  1.44100e+01
       O  1.31871e+00  1.65856e+01  1.42976e+01
       O  3.52317e+00  1.72009e+01  1.45656e+01
       C  1.45524e+01  9.92417e+00  8.24865e+00
       O  1.44774e+01  9.38992e+00  7.21626e+00
       O  1.45115e+01  1.04444e+01  9.28658e+00
       C  9.71651e+00  1.68359e+00  1.01678e+01
       O  1.08260e+01  1.94677e+00  1.03736e+01
       O  8.57096e+00  1.40597e+00  9.95902e+00
       C  1.13623e+01  7.90629e+00 -1.10826e+00
       O  1.20098e+01  8.76785e+00 -1.47905e+00
       O  1.07054e+01  7.09193e+00 -6.76708e-01
       C  1.22375e+01  1.21017e+01  5.79358e+00
       O  1.20210e+01  1.31866e+01  5.35851e+00
       O  1.24172e+01  1.10818e+01  6.31777e+00
       C  1.13652e+01  1.82495e+00  3.24471e-01
       O  1.12443e+01  9.72218e-01  1.11042e+00
       O  1.14505e+01  2.64389e+00 -4.77888e-01
       C  6.04076e+00  1.03628e+01  5.79704e+00
       O  6.74654e+00  1.12541e+01  5.68805e+00
       O  5.21132e+00  9.55492e+00  5.88599e+00
       C  5.50060e+00  4.00380e+00  4.87837e+00
       O  5.02252e+00  3.95655e+00  5.91879e+00
       O  6.00098e+00  4.03431e+00  3.81889e+00
       C  3.57549e+00  9.28849e+00 -1.89670e-01
       O  3.56187e+00  1.01006e+01  6.54933e-01
       O  3.57632e+00  8.46953e+00 -9.94216e-01
       C  8.97817e+00  1.35791e+01  1.46727e+01
       O  7.98469e+00  1.38043e+01  1.41053e+01
       O  1.00203e+01  1.34034e+01  1.52187e+01
       C  3.60655e-01  2.57133e+00  2.18180e+00
       O  1.50523e+00  2.41906e+00  2.17555e+00
       O -7.69892e-01  2.79459e+00  2.23937e+00
       C -4.08136e+00  9.27889e-01  1.02155e+01
       O -4.22899e+00  2.00038e+00  9.85536e+00
       O -3.91909e+00 -2.21358e-01  1.04794e+01
       C  2.78544e+00  1.75850e+01  1.23117e+01
       O  2.01238e+00  1.68760e+01  1.28244e+01
       O  3.52697e+00  1.82248e+01  1.16821e+01
       C  9.33679e+00  9.37466e+00  1.04092e+01
       O  1.04257e+01  9.32728e+00  1.00170e+01
       O  8.29736e+00  9.40343e+00  1.08955e+01
       C  2.42093e+00  1.41108e+01  5.69639e+00
       O  3.31517e+00  1.36649e+01  6.28820e+00
       O  1.51066e+00  1.45796e+01  5.15035e+00
       C  3.94882e+00 -5.47344e-01 -5.00403e-01
       O  4.47458e+00 -8.32753e-02  4.32129e-01
       O  3.49795e+00 -9.51553e-01 -1.49479e+00
       C  7.37422e+00  6.78847e+00  1.31509e+01
       O  8.49511e+00  6.94031e+00  1.30169e+01
       O  6.24196e+00  6.73967e+00  1.34563e+01
       C -1.10354e+00  7.62738e+00  2.80750e+00
       O -1.69773e+00  7.43767e+00  3.77613e+00
       O -6.08821e-01  7.82376e+00  1.74014e+00
       C  9.22316e+00  1.56767e+01  5.21248e+00
       O  8.87451e+00  1.51399e+01  4.22427e+00
       O  9.64286e+00  1.63749e+01  6.05667e+00
       C  6.23703e+00  2.56289e+00 -6.40784e-01
       O  6.44497e+00  3.51022e+00 -3.42637e-02
       O  5.97904e+00  1.62872e+00 -1.26414e+00
       C  4.96130e+00  1.24581e+01  1.69589e+01
       O  5.18554e+00  1.36246e+01  1.67735e+01
       O  4.69580e+00  1.13369e+01  1.71530e+01
       C  8.87048e+00  6.51054e+00  7.77971e+00
       O  9.22045e+00  6.35112e+00  6.68967e+00
       O  8.50142e+00  6.71983e+00  8.84609e+00
       C  1.35281e+01  1.22166e+01  1.25640e+00
       O  1.30596e+01  1.29791e+01  5.71972e-01
       O  1.41019e+01  1.13800e+01  1.87507e+00
       C  7.88602e+00  5.66262e+00  3.31697e+00
       O  6.98394e+00  5.03365e+00  3.74908e+00
       O  8.72613e+00  6.25460e+00  2.82982e+00
       C  5.88573e+00  7.95586e+00  6.26646e+00
       O  5.84970e+00  7.19165e+00  7.12159e+00
       O  6.05717e+00  8.65369e+00  5.36306e+00
       C  1.33982e+01  8.35548e+00  1.17142e+01
       O  1.29095e+01  7.39017e+00  1.13212e+01
       O  1.37409e+01  9.36925e+00  1.21671e+01
       C  2.02888e+00  9.35760e+00  3.69517e+00
       O  2.15817e+00  8.50464e+00  2.85398e+00
       O  1.79708e+00  1.01112e+01  4.53466e+00
       C  1.54112e+00  5.92404e+00  1.50310e+00
       O  1.72490e+00  5.58855e+00  2.60022e+00
       O  1.38014e+00  6.14002e+00  3.54719e-01
       C  1.06267e+01  4.36967e+00  1.45541e+01
       O  9.87154e+00  3.48638e+00  1.46167e+01
       O  1.14626e+01  5.17785e+00  1.45560e+01
       C -7.58202e-01  1.32769e+01  5.29105e+00
       O -1.22172e+00  1.38640e+01  6.16010e+00
       O -2.26417e-01  1.27761e+01  4.39511e+00
       C  1.03878e+01  9.59491e+00  1.41050e+01
       O  1.06340e+01  9.72482e+00  1.52600e+01
       O  1.02582e+01  9.46219e+00  1.29444e+01
       C  1.17250e+00  1.10480e+01  8.69119e+00
       O  9.10197e-01  1.10423e+01  7.55794e+00
       O  1.30940e+00  1.10334e+01  9.84243e+00
       C  1.05517e+01  4.39662e+00  1.00805e+01
       O  1.04518e+01  4.12622e+00  1.11990e+01
       O  1.06628e+01  4.68359e+00  8.96662e+00
       C  1.73700e+01  7.19448e+00  9.50427e+00
       O  1.62685e+01  7.37275e+00  9.06939e+00
       O  1.84526e+01  6.95288e+00  9.91053e+00
       C  6.56767e+00  1.63251e+00  7.81040e+00
       O  5.68917e+00  1.85649e+00  8.55167e+00
       O  7.36022e+00  1.34256e+00  6.98601e+00
       C  1.27027e+01  5.37838e+00  5.80069e+00
       O  1.31700e+01  6.16485e+00  6.51280e+00
       O  1.23716e+01  4.56955e+00  5.02758e+00
       C -1.08708e-01  1.49182e+01  1.20034e+01
       O -1.15499e+00  1.54222e+01  1.20772e+01
       O  9.27497e-01  1.43898e+01  1.19716e+01
       C  1.62609e+01  4.86867e+00  7.32389e+00
       O  1.65874e+01  5.66793e+00  6.54355e+00
       O  1.59019e+01  4.09731e+00  8.14066e+00
       C  1.26425e+01  2.12186e+00  8.16269e+00
       O  1.34460e+01  2.54245e+00  7.47507e+00
       O  1.18127e+01  1.61331e+00  8.83570e+00
       C  1.83597e+01  1.10529e+01 -4.96644e+00
       O  1.90755e+01  1.18135e+01 -5.47729e+00
       O  1.77606e+01  1.02923e+01 -4.34669e+00
       C  1.04643e+01  9.75694e+00  5.90932e+00
       O  9.36353e+00  9.51235e+00  6.10474e+00
       O  1.16100e+01  9.86064e+00  5.73207e+00
       C  7.70290e+00 -2.80770e+00  3.00178e+00
       O  7.89874e+00 -1.66485e+00  3.20204e+00
       O  7.48635e+00 -3.91668e+00  2.69825e+00
       C  2.63979e+00  1.47695e+01  9.64778e+00
       O  1.93039e+00  1.42157e+01  8.88922e+00
       O  3.34910e+00  1.53803e+01  1.03509e+01
       C  4.15684e+00  3.11564e+00  3.39861e+00
       O  3.80447e+00  3.22353e+00  4.50840e+00
       O  4.43878e+00  3.03801e+00  2.28357e+00
       C  1.93846e+00  9.77212e+00  5.79167e+00
       O  2.32435e+00  8.72851e+00  5.48878e+00
       O  1.46215e+00  1.07814e+01  6.05260e+00
       C  4.34537e+00  1.01977e+01  8.99083e+00
       O  3.26766e+00  9.81360e+00  8.83584e+00
       O  5.38028e+00  1.06392e+01  9.16504e+00
       C -4.17828e+00  5.55611e+00  3.19146e+00
       O -4.42625e+00  5.36739e+00  4.28025e+00
       O -3.90457e+00  5.85514e+00  2.10834e+00
       C  2.76066e+00  3.79024e+00  8.45411e+00
       O  2.99243e+00  3.96853e+00  7.32380e+00
       O  2.47877e+00  3.68912e+00  9.55322e+00
       C -1.56756e-01  1.45977e+01  6.19674e+00
       O -1.35554e-01  1.35634e+01  5.72333e+00
       O -1.52490e-01  1.56756e+01  6.65254e+00
       C  1.04034e+01  9.65361e+00  1.23244e+01
       O  1.09827e+01  1.04684e+01  1.17311e+01
       O  9.78994e+00  8.81983e+00  1.28663e+01
       C  5.37705e+00  1.38454e+01  3.10340e+00
       O  5.83035e+00  1.40653e+01  2.06329e+00
       O  4.82119e+00  1.36567e+01  4.11618e+00
       C  5.49341e+00  1.04084e+01  4.51626e+00
       O  6.04824e+00  1.08170e+01  3.56022e+00
       O  5.04052e+00  1.02045e+01  5.58743e+00
       C  9.75582e+00  1.20064e+01  9.63573e+00
       O  8.73866e+00  1.15493e+01  9.85742e+00
       O  1.08222e+01  1.23813e+01  9.29678e+00
       C -5.55660e-02  5.49210e+00  8.42969e+00
       O  5.68541e-01  6.44439e+00  8.19178e+00
       O -5.73325e-01  4.53782e+00  8.80892e+00
       C  5.55416e+00  1.30916e+01  7.51945e+00
       O  6.58848e+00  1.35651e+01  7.54566e+00
       O  4.50610e+00  1.25879e+01  7.47045e+00
       C  6.70069e+00  3.50842e+00  7.27402e-01
       O  6.59941e+00  3.69924e+00  1.89289e+00
       O  6.88767e+00  3.37428e+00 -3.90231e-01
       C  1.10426e+00  1.65625e+01  1.20091e+01
       O  9.33473e-01  1.76835e+01  1.22898e+01
       O  1.23122e+00  1.54281e+01  1.17166e+01
       C  4.45970e+00  9.25251e-01  1.18525e+01
       O  4.81904e+00  1.03870e+00  1.07668e+01
       O  4.03695e+00  7.58361e-01  1.29079e+01
       C  6.49434e+00  1.16331e+01 -7.26989e-01
       O  6.65026e+00  1.27823e+01 -7.22453e-01
       O  6.24906e+00  1.05033e+01 -9.66880e-01
       C  1.00361e+01  8.64529e+00  6.40073e+00
       O  1.02556e+01  7.89385e+00  5.56036e+00
       O  9.68415e+00  9.36069e+00  7.26113e+00
       C -1.56188e+00  4.71358e+00  1.38673e+01
       O -1.69756e+00  5.74495e+00  1.34454e+01
       O -1.39541e+00  3.61085e+00  1.42452e+01
       C  1.38371e+01  1.44232e+01  3.11483e+00
       O  1.29041e+01  1.38453e+01  2.67991e+00
       O  1.47941e+01  1.49510e+01  3.47134e+00
       C  2.90810e+00  1.05293e+01 -3.35769e-01
       O  2.10204e+00  1.05603e+01 -1.17221e+00
       O  3.73770e+00  1.05579e+01  4.89112e-01
       C  1.54724e+00  4.83812e+00  2.49898e+00
       O  1.68742e+00  4.06306e+00  1.62396e+00
       O  1.34980e+00  5.52881e+00  3.40600e+00
       C  1.12326e+01  2.54952e+00  1.04046e+01
       O  1.16445e+01  2.98885e+00  1.13880e+01
       O  1.07801e+01  2.03294e+00  9.45187e+00
       C  5.21681e-01  1.29640e+01 -2.28569e-01
       O  1.34095e+00  1.26470e+01  5.99528e-01
       O -3.07940e-01  1.33422e+01 -9.57003e-01
       C  7.30182e+00  7.38553e+00  1.30555e+01
       O  7.46762e+00  6.83704e+00  1.20041e+01
       O  7.16057e+00  7.97646e+00  1.40392e+01
       C -1.40702e+00  1.11515e+01  2.71004e+00
       O -9.35858e-01  1.10015e+01  1.68746e+00
       O -2.01589e+00  1.12989e+01  3.68266e+00
       C  7.30602e+00  2.38962e+00  5.30022e+00
       O  7.25928e+00  3.22024e+00  6.09417e+00
       O  7.31659e+00  1.55651e+00  4.54035e+00
       C  1.41440e+01  8.10882e+00  1.24300e+01
       O  1.36182e+01  8.35481e+00  1.14621e+01
       O  1.47546e+01  7.78030e+00  1.33784e+01
       C  1.04948e+01  3.15453e+00  5.37941e+00
       O  1.01656e+01  3.52553e+00  6.46611e+00
       O  1.06617e+01  2.80280e+00  4.24739e+00
       C  8.86250e+00  9.98110e+00  2.33976e+00
       O  8.99359e+00  9.15245e+00  3.14116e+00
       O  8.60555e+00  1.07405e+01  1.49052e+00
       C  2.33311e+00  1.33310e+01  9.13075e+00
       O  2.61153e+00  1.24688e+01  9.84373e+00
       O  2.02969e+00  1.42090e+01  8.44394e+00
       C  1.29389e+01  1.03996e+01  8.95767e+00
       O  1.35306e+01  1.12894e+01  9.35769e+00
       O  1.23798e+01  9.44791e+00  8.58807e+00
       C  7.94070e+00  3.76184e+00  9.23400e+00
       O  8.77463e+00  4.51272e+00  9.59985e+00
       O  7.10443e+00  3.05673e+00  8.83186e+00
       C  1.30812e+01  7.80303e+00  4.67878e+00
       O  1.31964e+01  8.66771e+00  3.88433e+00
       O  1.30762e+01  6.86444e+00  5.36490e+00
       C  9.60627e+00  1.26845e+01  6.05605e+00
       O  1.00647e+01  1.36789e+01  6.29069e+00
       O  9.08638e+00  1.16771e+01  5.77296e+00
       C  9.19241e+00  9.53638e-01  2.49485e+00
       O  9.09668e+00  1.87921e+00  1.78837e+00
       O  9.34762e+00  5.91237e-02  3.19390e+00
       C  5.37534e+00  6.75505e+00  7.90701e+00
       O  4.74985e+00  7.08121e+00  6.97526e+00
       O  6.03280e+00  6.56547e+00  8.84654e+00
       C  4.30182e+00  7.28318e+00  2.84993e+00
       O  4.97988e+00  7.72082e+00  3.63545e+00
       O  3.72682e+00  6.90242e+00  1.92850e+00
       C  4.05189e+00  8.65554e+00  1.98893e+00
       O  4.67921e+00  8.52414e+00  2.95010e+00
       O  3.43274e+00  8.69775e+00  1.00669e+00
       C  8.11740e+00  1.47206e+01  1.78838e+01
       O  7.73996e+00  1.52279e+01  1.69146e+01
       O  8.58380e+00  1.41343e+01  1.87779e+01
       C  4.71517e+00  2.97267e+00  7.07701e+00
       O  3.73901e+00  3.17133e+00  7.69746e+00
       O  5.66707e+00  2.88179e+00  6.49008e+00
       C -1.58216e+00  2.52048e-02  8.15650e+00
       O -1.33779e+00 -5.23871e-01  9.13481e+00
       O -1.81831e+00  5.15689e-01  7.13420e+00
       C  5.27514e+00  8.44933e+00  7.43597e+00
       O  4.25771e+00  8.65506e+00  8.00443e+00
       O  6.28958e+00  8.24024e+00  6.89551e+00
       C  1.25086e+01  9.73543e+00  9.15107e+00
       O  1.24053e+01  9.66916e+00  7.99666e+00
       O  1.26279e+01  9.82814e+00  1.02778e+01
       C  1.82474e+00  1.35318e+01  8.11561e+00
       O  1.45610e+00  1.42757e+01  7.25850e+00
       O  2.21632e+00  1.27512e+01  8.89852e+00
       C  1.11573e+01  7.25685e+00  3.53147e+00
       O  1.13887e+01  7.39713e+00  4.65929e+00
       O  1.10024e+01  7.12821e+00  2.40032e+00
       C  7.54131e+00  1.34433e+01  1.38308e+01
       O  8.13597e+00  1.27271e+01  1.45565e+01
       O  7.06000e+00  1.42674e+01  1.31535e+01
       C  3.85136e+00  6.09537e+00  4.62786e+00
       O  2.81525e+00  5.94594e+00  4.13856e+00
       O  4.90740e+00  6.28591e+00  5.05818e+00
       C  7.53897e+00  1.08928e+01  3.47755e+00
       O  7.40469e+00  1.02312e+01  2.55810e+00
       O  7.64198e+00  1.16141e+01  4.39026e+00
       C  4.71321e+00 -8.68406e-01  3.32905e+00
       O  4.84060e+00  2.28722e-01  2.89633e+00
       O  4.64960e+00 -1.96567e+00  3.64818e+00
       C -2.76909e+00  1.13523e+01  1.34784e+01
       O -2.89322e+00  1.19121e+01  1.24730e+01
       O -2.53508e+00  1.07619e+01  1.44428e+01
       C  5.04677e+00  4.48303e+00  1.10930e+01
       O  4.80127e+00  5.62413e+00  1.09668e+01
       O  5.26579e+00  3.38598e+00  1.13601e+01
       C  1.12309e+01  7.99411e+00 -3.67394e-01
       O  1.23574e+01  7.81216e+00 -1.53536e-01
       O  1.01592e+01  8.32703e+00 -6.64479e-01
       C  1.00112e+01  1.04126e+01  5.70783e+00
       O  1.00957e+01  1.05071e+01  4.58394e+00
       O  1.00097e+01  1.03736e+01  6.85181e+00
       C  1.35267e+00  2.39837e+00  1.28440e+01
       O  2.36643e+00  2.89385e+00  1.30727e+01
       O  3.44972e-01  1.88679e+00  1.27370e+01
       C  8.14460e+00  1.12895e+01  9.08294e+00
       O  7.93245e+00  1.01371e+01  8.96461e+00
       O  8.35981e+00  1.24365e+01  9.24927e+00
       C  2.20986e+00  1.23308e+01 -7.40520e-02
       O  3.32022e+00  1.22964e+01  1.06645e-01
       O  1.06713e+00  1.23498e+01 -2.60425e-01
       C  1.73917e+00  5.66356e+00 -1.41227e+00
       O  2.15489e+00  5.93431e+00 -3.94943e-01
       O  1.28524e+00  5.26829e+00 -2.42284e+00
       C  5.06787e+00 -6.49764e-01  1.04137e+01
       O  5.41853e+00 -1.45142e+00  9.62763e+00
       O  4.78232e+00  2.22712e-01  1.11431e+01
       C  2.45182e+00  1.51775e+01  3.82390e+00
       O  3.20645e+00  1.57141e+01  4.50762e+00
       O  1.67262e+00  1.46490e+01  3.14023e+00
       C  2.21164e+00  9.53640e+00  1.08674e+01
       O  2.17619e+00  8.40251e+00  1.07433e+01
       O  2.39135e+00  1.06776e+01  1.10409e+01
       C  1.75523e+00  1.11538e+01  5.76787e+00
       O  2.45635e+00  1.20670e+01  5.86599e+00
       O  1.10523e+00  1.01816e+01  5.80630e+00
       C  1.22290e+01 -8.17540e-01  3.23084e+00
       O  1.15766e+01 -1.50396e-01  2.50606e+00
       O  1.28767e+01 -1.48297e+00  3.92269e+00
       C  1.46068e+01  6.71878e+00  7.59124e+00
       O  1.36516e+01  6.35143e+00  8.16049e+00
       O  1.55948e+01  7.09789e+00  7.14508e+00
       C  8.97960e+00  2.91126e+00  7.88557e+00
       O  9.93005e+00  3.54574e+00  7.94255e+00
       O  7.99966e+00  2.31652e+00  7.80495e+00
       C  6.07280e+00  5.54526e+00  2.51584e+00
       O  5.15693e+00  5.26235e+00  1.84476e+00
       O  7.09461e+00  5.62849e+00  3.06058e+00
       C -4.90593e+00  1.69252e+01  1.25651e+01
       O -4.90030e+00  1.76249e+01  1.35083e+01
       O -4.93739e+00  1.62218e+01  1.16550e+01
       C  9.38695e+00  6.10748e+00  9.24560e+00
       O  8.38566e+00  5.46875e+00  9.41133e+00
       O  1.03775e+01  6.71815e+00  9.03749e+00
       C  1.14849e+01  3.15294e+00  1.07443e+01
       O  1.12212e+01  4.21503e+00  1.11167e+01
       O  1.17146e+01  2.15770e+00  1.02802e+01
       C  1.31298e+01  3.63803e+00  5.13380e+00
       O  1.26001e+01  3.67646e+00  6.17887e+00
       O  1.36920e+01  3.74222e+00  4.13641e+00
       C  1.45990e+01  1.00828e+01  2.66429e+00
       O  1.41924e+01  9.02065e+00  2.78222e+00
       O  1.51129e+01  1.10876e+01  2.44141e+00
       C  1.12517e+01  3.83483e+00  1.68018e+00
       O  1.22944e+01  3.82972e+00  1.23247e+00
       O  1.02793e+01  4.03067e+00  2.24762e+00
       C  6.62209e+00  8.14810e+00  1.13954e+01
       O  7.33858e+00  7.22944e+00  1.13028e+01
       O  5.93674e+00  9.08065e+00  1.13820e+01
       C  8.24161e+00  7.15612e+00  5.20101e+00
       O  8.22512e+00  8.28998e+00  4.89191e+00
       O  8.42508e+00  6.07532e+00  5.54725e+00
       C  3.97784e+00  8.70273e+00 -2.07055e+00
       O  2.87357e+00  8.90859e+00 -2.30011e+00
       O  5.07924e+00  8.46486e+00 -1.84917e+00
       C  1.13752e+01  1.24927e+01  1.19474e+01
       O  1.03867e+01  1.21956e+01  1.24696e+01
       O  1.23779e+01  1.28897e+01  1.14618e+01
       C -2.64116e+00  3.63219e+00  2.44784e+00
       O -1.84779e+00  4.15833e+00  1.74687e+00
       O -3.39808e+00  3.03084e+00  3.10692e+00
       C  7.74732e-01  4.79325e+00  1.71969e+01
       O  3.64418e-01  4.27239e+00  1.81514e+01
       O  1.23499e+00  5.33567e+00  1.62745e+01
       C  5.12666e+00  6.91408e+00  8.05789e+00
       O  6.13138e+00  6.46790e+00  7.65379e+00
       O  4.17785e+00  7.35406e+00  8.53842e+00
       C  1.00244e+01  1.67635e+01  1.06998e+01
       O  8.89331e+00  1.70311e+01  1.07896e+01
       O  1.12073e+01  1.65990e+01  1.06767e+01
       C  4.38265e+00  1.83585e+01  5.06826e+00
       O  5.28752e+00  1.75904e+01  5.07331e+00
       O  3.59274e+00  1.91789e+01  5.06877e+00
       C  7.53686e+00  9.75918e+00  1.14962e-01
       O  8.46741e+00  9.27492e+00 -3.98749e-01
       O  6.72244e+00  1.02593e+01  7.53195e-01
       C  8.38202e+00  7.19937e+00  1.07840e+01
       O  9.46035e+00  6.83774e+00  1.11263e+01
       O  7.35618e+00  7.43613e+00  1.02667e+01
       C -2.33872e+00  8.59741e+00  5.44123e-01
       O -2.26368e+00  8.30731e+00 -5.87682e-01
       O -2.29568e+00  9.04988e+00  1.61929e+00
       C  7.49341e+00  8.30837e+00  4.61559e+00
       O  7.97935e+00  8.06396e+00  3.58394e+00
       O  6.99328e+00  8.48543e+00  5.67508e+00
       C  6.05687e+00  3.54614e+00 -5.41524e+00
       O  4.93002e+00  3.41168e+00 -5.22690e+00
       O  7.19196e+00  3.66206e+00 -5.69186e+00
       C  3.34612e+00  1.42971e+01  4.14912e+00
       O  4.30830e+00  1.47504e+01  4.61326e+00
       O  2.39217e+00  1.38071e+01  3.66534e+00
       C -1.88558e+00  3.97879e+00  7.70200e+00
       O -1.12191e+00  4.80440e+00  7.94112e+00
       O -2.77799e+00  3.26100e+00  7.54165e+00
       C  1.39618e+01  1.16578e+01  9.33692e-01
       O  1.38979e+01  1.04975e+01  6.62225e-01
       O  1.41139e+01  1.28439e+01  1.00351e+00
       C  7.71023e+00  6.11499e+00  8.34424e-01
       O  6.71531e+00  6.62567e+00  6.98480e-01
       O  8.76678e+00  5.59459e+00  8.73968e-01
       C  2.69746e+00  1.22908e+01  1.06347e+01
       O  2.59153e+00  1.23976e+01  1.17670e+01
       O  2.84189e+00  1.22134e+01  9.45839e+00
       C  1.26156e+01  1.04729e+01  9.26676e+00
       O  1.23183e+01  1.06758e+01  8.18203e+00
       O  1.28285e+01  1.01659e+01  1.03526e+01
       C -3.84204e-01  1.46968e+01  4.21846e+00
       O -3.60661e-01  1.40501e+01  5.17359e+00
       O -6.06191e-01  1.53481e+01  3.28639e+00
       C  4.27499e+00  9.55427e+00  4.81952e+00
       O  4.40366e+00  9.45693e+00  3.69051e+00
       O  4.07835e+00  9.55199e+00  5.95597e+00
       C  6.72313e+00 -3.04473e+00  9.19222e+00
       O  7.12380e+00 -2.99004e+00  1.02432e+01
       O  6.39344e+00 -3.21223e+00  8.07334e+00
       C  4.43386e+00  1.77591e+01  5.66744e-01
       O  5.36834e+00  1.74533e+01  1.17912e+00
       O  3.46616e+00  1.80589e+01  9.66540e-04
       C  4.50439e+00  1.24599e+01  1.42304e+01
       O  5.11672e+00  1.29630e+01  1.33987e+01
       O  4.02978e+00  1.20117e+01  1.51689e+01
       C  1.18462e+00  8.31456e+00  7.05991e+00
       O  1.06278e+00  8.35559e+00  8.25375e+00
       O  1.24347e+00  8.26652e+00  5.85547e+00
       C  8.22534e+00 -2.09433e+00  3.42623e+00
       O  8.99784e+00 -1.90737e+00  2.56898e+00
       O  7.36250e+00 -2.24308e+00  4.21580e+00
       C  1.23445e+01  6.59384e+00  1.00051e+01
       O  1.29160e+01  5.98821e+00  1.08310e+01
       O  1.17822e+01  7.26998e+00  9.22087e+00
       C  1.02102e+01  6.03153e+00  5.17495e+00
       O  1.09727e+01  5.33590e+00  4.63738e+00
       O  9.43530e+00  6.71545e+00  5.72866e+00
       C  7.67917e+00  1.52253e+00  1.42954e+00
       O  7.05243e+00  1.42064e+00  2.39821e+00
       O  8.36065e+00  1.72598e+00  4.94649e-01
       C  6.13851e+00  1.55744e+01  1.09060e+01
       O  5.98685e+00  1.64782e+01  1.16034e+01
       O  6.25391e+00  1.47006e+01  1.01605e+01
       C  9.40447e+00  9.79072e+00  7.24801e+00
       O  9.22658e+00  9.17174e+00  8.21226e+00
       O  9.37223e+00  1.04687e+01  6.29926e+00
       C  1.25007e+01  2.16161e+00  1.34640e+01
       O  1.34109e+01  2.84270e+00  1.32475e+01
       O  1.15481e+01  1.46425e+00  1.37306e+01
       C  1.58493e+01  7.98318e+00  1.98435e+00
       O  1.66888e+01  7.62867e+00  1.25269e+00
       O  1.48983e+01  8.29699e+00  2.54528e+00
       C  1.25574e+01  9.60587e+00  4.37076e+00
       O  1.18250e+01  8.85452e+00  4.93560e+00
       O  1.32208e+01  1.03306e+01  3.75341e+00
       C  9.28003e+00 -4.93284e-02  9.63733e+00
       O  9.04033e+00 -9.65352e-01  9.00141e+00
       O  9.53809e+00  8.79951e-01  1.02688e+01
       C  1.69042e+00  4.28488e+00  9.18481e+00
       O  1.35295e+00  3.48162e+00  9.94037e+00
       O  1.96102e+00  5.13834e+00  8.48020e+00
       C  8.70387e+00  9.15215e-01  5.78972e+00
       O  7.96439e+00  1.13053e+00  6.63771e+00
       O  9.41106e+00  6.15122e-01  4.93769e+00
       C  7.00954e+00  3.83492e+00  4.44198e+00
       O  7.17620e+00  2.85879e+00  5.02825e+00
       O  6.99208e+00  4.81675e+00  3.85323e+00
       C  1.11726e+01  1.74100e+01  1.35365e+01
       O  1.14543e+01  1.68313e+01  1.44835e+01
       O  1.08104e+01  1.80661e+01  1.26438e+01
       C  5.09035e+00  9.84370e+00  7.10140e+00
       O  4.12122e+00  9.23894e+00  7.37798e+00
       O  6.01214e+00  1.05162e+01  6.86591e+00
       C -1.50392e+00  5.31700e+00  7.30701e+00
       O -1.35153e+00  6.20258e+00  6.56130e+00
       O -1.73956e+00  4.57062e+00  8.15379e+00
       C  4.74827e+00  7.73601e+00  9.99315e+00
       O  3.79612e+00  8.11454e+00  1.05394e+01
       O  5.67428e+00  7.21836e+00  9.58897e+00
       C  1.64857e+01  1.34856e+01  9.46137e+00
       O  1.75561e+01  1.37307e+01  9.05230e+00
       O  1.54523e+01  1.32471e+01  9.96257e+00
       C  8.86024e+00  1.25656e+01  5.63780e+00
       O  9.93910e+00  1.29792e+01  5.69738e+00
       O  7.78879e+00  1.21002e+01  5.56232e+00
       C  1.03327e+01  9.56327e+00  2.69917e-01
       O  9.48211e+00  9.92486e+00 -4.49785e-01
       O  1.11232e+01  9.32349e+00  1.05507e+00
       C  9.43366e+00  1.63453e+01  9.42245e+00
       O  8.84631e+00  1.64549e+01  8.40280e+00
       O  9.97861e+00  1.62251e+01  1.04092e+01
       C  1.03307e+00  1.05634e+01  7.15712e+00
       O  7.95809e-01  9.45194e+00  6.81890e+00
       O  1.30017e+00  1.16645e+01  7.46013e+00
       C  8.72640e+00  7.92763e+00  7.23502e+00
       O  8.54115e+00  6.77101e+00  7.41492e+00
       O  8.89905e+00  9.05104e+00  7.15576e+00
       C  7.73097e+00 -7.61240e-01  7.77972e-01
       O  7.23549e+00 -3.70946e-01 -1.67295e-01
       O  8.17950e+00 -1.13185e+00  1.79863e+00
       C  5.50848e+00  1.06780e+01  1.05319e+01
       O  4.75649e+00  1.10066e+01  1.13126e+01
       O  6.18559e+00  1.02662e+01  9.66633e+00
       C  1.99962e+00  6.71498e+00  7.75985e+00
       O  1.31663e+00  7.12825e+00  8.59012e+00
       O  2.67584e+00  6.24833e+00  6.94687e+00
       C  1.40386e+01  1.46234e+01 -3.84822e-01
       O  1.28943e+01  1.47575e+01 -4.19605e-01
       O  1.51857e+01  1.45945e+01 -2.44275e-01
       C  9.28806e+00  6.60284e+00  2.57698e+00
       O  8.57467e+00  7.54764e+00  2.48891e+00
       O  9.95541e+00  5.65768e+00  2.59566e+00
       C  4.04509e+00  4.24163e+00  1.10902e+01
       O  4.07327e+00  4.86392e+00  1.00767e+01
       O  4.19936e+00  3.61801e+00  1.20369e+01
       C  1.14073e+01  1.05930e+01  4.12483e+00
       O  1.02843e+01  1.04006e+01  3.89230e+00
       O  1.24875e+01  1.07297e+01  4.51395e+00
       C  6.54633e+00  9.24948e+00  3.91589e+00
       O  6.16314e+00  9.79918e+00  2.94753e+00
       O  6.94390e+00  8.58456e+00  4.77970e+00
       C  3.34654e+00 -2.53376e+00  3.54303e+00
       O  3.32392e+00 -2.44831e+00  2.36530e+00
       O  3.45052e+00 -2.68644e+00  4.68082e+00
       C  1.42597e+01  2.46463e+00  9.39128e+00
       O  1.51727e+01  3.21826e+00  9.53964e+00
       O  1.32971e+01  1.77283e+00  9.40824e+00
       C  1.32332e+00  1.44171e+01  4.92470e+00
       O  1.02459e+00  1.50756e+01  5.80651e+00
       O  1.55475e+00  1.36107e+01  4.10106e+00
       C  5.43892e+00  9.40330e+00  1.36654e+01
       O  6.39449e+00  1.00480e+01  1.35286e+01
       O  4.51429e+00  8.71787e+00  1.37930e+01
       C  6.42074e-01  1.08618e+01  1.22172e+01
       O  1.40985e+00  1.02078e+01  1.16935e+01
       O -1.61579e-01  1.15597e+01  1.26647e+01
       C  1.04193e+01  1.15702e+00  2.94213e+00
       O  1.11943e+01  4.53994e-01  3.39658e+00
       O  9.51069e+00  1.73271e+00  2.46957e+00
       C  1.69968e+01  6.59663e+00  1.57996e+01
       O  1.59720e+01  6.31445e+00  1.52754e+01
       O  1.79960e+01  6.91002e+00  1.62665e+01
       C  1.10062e+01  2.60894e+00  6.09653e+00
       O  1.13614e+01  2.01082e+00  7.03657e+00
       O  1.06998e+01  3.19409e+00  5.16050e+00