LAMMPS Description

108  atoms
 72  bonds
 36  angles

 2  atom types
 1  bond types
 1  angle types


0.0 25.263 xlo xhi
0.0 25.263 ylo yhi
0.0 25.263 zlo zhi

Masses

  1 12.0107
  2 15.9994

Bond Coeffs

 1    2.196    0.45106005 -0.67297933 0.5857145

Angle Coeffs

  1    0.0861  180.000000

Atoms

1 1 1 0.651200 8.391386 13.056837 7.438745
2 1 2 -0.325600 7.632951 12.226273 9.324680
3 1 2 -0.325600 9.149820 13.887401 5.552810
4 2 1 0.651200 17.824578 23.444566 24.871992
5 2 2 -0.325600 18.993360 21.627108 24.481344
6 2 2 -0.325600 16.655796 25.262024 25.262639
7 3 1 0.651200 2.090967 10.568474 13.816567
8 3 2 -0.325600 0.583542 8.980350 13.981925
9 3 2 -0.325600 3.598391 12.156598 13.651209
10 4 1 0.651200 4.545339 3.454976 17.970085
11 4 2 -0.325600 4.069699 4.289262 15.995358
12 4 2 -0.325600 5.020978 2.620691 19.944811
13 5 1 0.651200 8.504397 22.265953 16.607378
14 5 2 -0.325600 9.932963 23.899774 16.941499
15 5 2 -0.325600 7.075830 20.632132 16.273257
16 6 1 0.651200 22.435862 22.701492 19.128002
17 6 2 -0.325600 22.178800 24.657294 18.163341
18 6 2 -0.325600 22.692923 20.745691 20.092663
19 7 1 0.651200 11.049818 23.199072 11.601873
20 7 2 -0.325600 12.365454 21.445416 11.726797
21 7 2 -0.325600 9.734183 24.952727 11.476949
22 8 1 0.651200 17.699982 14.338995 0.499183
23 8 2 -0.325600 18.595906 12.397340 0.998288
24 8 2 -0.325600 16.804057 16.280650 0.000079
25 9 1 0.651200 17.757654 17.535950 20.162286
26 9 2 -0.325600 18.801697 15.820413 21.050384
27 9 2 -0.325600 16.713611 19.251486 19.274188
28 10 1 0.651200 0.579133 11.300007 6.301821
29 10 2 -0.325600 1.157857 13.416883 6.226166
30 10 2 -0.325600 0.000410 9.183130 6.377476
31 11 1 0.651200 15.761123 18.623851 8.177272
32 11 2 -0.325600 15.080900 20.075064 6.676242
33 11 2 -0.325600 16.441345 17.172639 9.678301
34 12 1 0.651200 7.987980 5.352655 0.478302
35 12 2 -0.325600 8.070600 3.210500 0.953859
36 12 2 -0.325600 7.905360 7.494810 0.002744
37 13 1 0.651200 6.154533 25.263902 22.548947
38 13 2 -0.325600 6.493678 25.263885 24.718461
39 13 2 -0.325600 5.815387 25.263920 20.379433
40 14 1 0.651200 10.516328 7.743662 17.483521
41 14 2 -0.325600 9.694286 5.720852 17.716544
42 14 2 -0.325600 11.338370 9.766471 17.250497
43 15 1 0.651200 22.572104 18.757320 1.760331
44 15 2 -0.325600 22.498340 20.909080 2.191950
45 15 2 -0.325600 22.645869 16.605559 1.328712
46 16 1 0.651200 14.870329 11.890672 10.394585
47 16 2 -0.325600 16.672669 11.702387 9.154452
48 16 2 -0.325600 13.067990 12.078957 11.634718
49 17 1 0.651200 4.812475 15.187709 22.110834
50 17 2 -0.325600 5.576969 14.746287 24.121432
51 17 2 -0.325600 4.047980 15.629131 20.100236
52 18 1 0.651200 19.999502 23.249531 12.065150
53 18 2 -0.325600 22.145114 23.551366 11.708704
54 18 2 -0.325600 17.853890 22.947697 12.421596
55 19 1 0.651200 6.785948 19.774868 7.364771
56 19 2 -0.325600 7.848160 21.259479 6.144342
57 19 2 -0.325600 5.723736 18.290257 8.585199
58 20 1 0.651200 1.379510 5.167980 1.381230
59 20 2 -0.325600 2.446264 7.074111 1.156488
60 20 2 -0.325600 0.312755 3.261849 1.605972
61 21 1 0.651200 15.598048 6.506234 22.148180
62 21 2 -0.325600 14.767546 8.529783 22.341381
63 21 2 -0.325600 16.428550 4.482685 21.954979
64 22 1 0.651200 0.817390 21.971593 9.305884
65 22 2 -0.325600 0.001965 20.376787 8.035653
66 22 2 -0.325600 1.632816 23.566399 10.576115
67 23 1 0.651200 10.423622 21.824556 22.992290
68 23 2 -0.325600 8.728092 20.431337 23.069288
69 23 2 -0.325600 12.119152 23.217775 22.915293
70 24 1 0.651200 0.738861 23.144268 16.311820
71 24 2 -0.325600 0.915996 21.029428 15.748005
72 24 2 -0.325600 0.561726 25.259107 16.875634
73 25 1 0.651200 13.784643 4.197025 10.299415
74 25 2 -0.325600 15.331165 5.491404 9.430701
75 25 2 -0.325600 12.238120 2.902647 11.168129
76 26 1 0.651200 25.255870 14.656683 20.426211
77 26 2 -0.325600 25.249208 13.241126 22.104890
78 26 2 -0.325600 25.262531 16.072240 18.747532
79 27 1 0.651200 18.277579 7.465221 15.489156
80 27 2 -0.325600 18.837916 5.373072 15.127566
81 27 2 -0.325600 17.717242 9.557369 15.850745
82 28 1 0.651200 13.764691 9.299277 3.605436
83 28 2 -0.325600 13.739058 11.494788 3.635185
84 28 2 -0.325600 13.790323 7.103767 3.575686
85 29 1 0.651200 0.222532 22.841697 25.262626
86 29 2 -0.325600 0.435479 25.027209 25.262374
87 29 2 -0.325600 0.009585 20.656185 25.262877
88 30 1 0.651200 22.156685 14.599912 14.251870
89 30 2 -0.325600 20.748091 16.281643 14.154650
90 30 2 -0.325600 23.565280 12.918181 14.349089
91 31 1 0.651200 20.571603 10.454495 25.264747
92 31 2 -0.325600 22.594698 9.600747 25.261341
93 31 2 -0.325600 18.548509 11.308244 25.268153
94 32 1 0.651200 23.694004 9.972486 2.419640
95 32 2 -0.325600 22.500473 9.384483 4.166507
96 32 2 -0.325600 24.887535 10.560490 0.672772
97 33 1 0.651200 21.691555 16.159195 8.209890
98 33 2 -0.325600 21.658642 14.008186 7.769566
99 33 2 -0.325600 21.724468 18.310205 8.650215
100 34 1 0.651200 23.511284 2.909308 3.227820
101 34 2 -0.325600 22.941776 1.320998 4.633074
102 34 2 -0.325600 24.080793 4.497619 1.822566
103 35 1 0.651200 11.212308 15.897909 17.856367
104 35 2 -0.325600 12.605662 15.792954 16.162449
105 35 2 -0.325600 9.818954 16.002865 19.550285
106 36 1 0.651200 6.410282 5.939139 10.073775
107 36 2 -0.325600 8.402863 6.723711 9.588101
108 36 2 -0.325600 4.417701 5.154567 10.559449

Bonds

1 1 1 2
2 1 1 3
3 1 4 5
4 1 4 6
5 1 7 8
6 1 7 9
7 1 10 11
8 1 10 12
9 1 13 14
10 1 13 15
11 1 16 17
12 1 16 18
13 1 19 20
14 1 19 21
15 1 22 23
16 1 22 24
17 1 25 26
18 1 25 27
19 1 28 29
20 1 28 30
21 1 31 32
22 1 31 33
23 1 34 35
24 1 34 36
25 1 37 38
26 1 37 39
27 1 40 41
28 1 40 42
29 1 43 44
30 1 43 45
31 1 46 47
32 1 46 48
33 1 49 50
34 1 49 51
35 1 52 53
36 1 52 54
37 1 55 56
38 1 55 57
39 1 58 59
40 1 58 60
41 1 61 62
42 1 61 63
43 1 64 65
44 1 64 66
45 1 67 68
46 1 67 69
47 1 70 71
48 1 70 72
49 1 73 74
50 1 73 75
51 1 76 77
52 1 76 78
53 1 79 80
54 1 79 81
55 1 82 83
56 1 82 84
57 1 85 86
58 1 85 87
59 1 88 89
60 1 88 90
61 1 91 92
62 1 91 93
63 1 94 95
64 1 94 96
65 1 97 98
66 1 97 99
67 1 100 101
68 1 100 102
69 1 103 104
70 1 103 105
71 1 106 107
72 1 106 108

Angles

1 1 2 1 3
2 1 5 4 6
3 1 8 7 9
4 1 11 10 12
5 1 14 13 15
6 1 17 16 18
7 1 20 19 21
8 1 23 22 24
9 1 26 25 27
10 1 29 28 30
11 1 32 31 33
12 1 35 34 36
13 1 38 37 39
14 1 41 40 42
15 1 44 43 45
16 1 47 46 48
17 1 50 49 51
18 1 53 52 54
19 1 56 55 57
20 1 59 58 60
21 1 62 61 63
22 1 65 64 66
23 1 68 67 69
24 1 71 70 72
25 1 74 73 75
26 1 77 76 78
27 1 80 79 81
28 1 83 82 84
29 1 86 85 87
30 1 89 88 90
31 1 92 91 93
32 1 95 94 96
33 1 98 97 99
34 1 101 100 102
35 1 104 103 105
36 1 107 106 108

